# vtk DataFile Version 1.0
dislocation microstructure
ASCII
DATASET POLYDATA
POINTS 299 float
-5.969599E+03		-8.246038E+03		-1.944394E+03
-6.910141E+03		-7.801659E+03		-5.594744E+02
-5.487884E+03		-8.495502E+03		-2.675574E+03
-9.675833E+03		-2.163472E+03		-3.633388E+03
-6.366287E+03		-8.055362E+03		-1.357031E+03
-2.554877E+03		-9.718744E+03		-6.831823E+03
-7.173272E+03		-7.660149E+03		-1.548326E+02
-4.745354E+03		-9.055485E+03		-3.978087E+03
-2.865135E+03		-9.718744E+03		-6.521564E+03
-3.731400E+03		-9.718744E+03		-5.655299E+03
-8.841999E+03		-1.361679E+03		-1.997762E+03
-3.223705E+03		-9.718744E+03		-6.162994E+03
-9.990065E+03		-2.782375E+03		-4.566524E+03
-4.165693E+03		-9.699796E+03		-5.202059E+03
-8.626011E+03		-1.014048E+03		-1.434143E+03
-5.123905E+03		-8.733852E+03		-3.277903E+03
-9.112888E+03		-1.689303E+03		-2.596274E+03
-4.459718E+03		-9.361889E+03		-4.570128E+03
-9.426921E+03		-1.958215E+03		-3.179220E+03
-1.004002E+04		-3.345363E+03		-5.179467E+03
-9.869143E+03		-2.436225E+03		-4.099451E+03
-4.584505E+03		-2.573255E+03		2.343294E+03
-7.122549E+03		-5.187159E+03		2.267434E+03
-6.342255E+03		-3.543587E+03		3.130711E+03
-4.910414E+03		-2.446721E+03		8.043347E+03
-7.630846E+03		-7.240259E+03		7.226309E+02
-7.424372E+03		-7.491240E+03		2.651758E+02
-6.743840E+03		-4.151613E+03		2.924271E+03
-6.931336E+03		-4.788187E+03		2.475194E+03
-7.638743E+03		-6.444302E+03		1.526485E+03
-4.452906E+03		-3.724659E+03		8.863777E+03
-7.428770E+03		-5.762772E+03		1.998041E+03
-5.069518E+03		-2.834574E+03		2.566988E+03
-5.524812E+03		-1.031177E+03		7.242200E+03
-3.628797E+03		-4.898390E+03		9.213398E+03
-5.625504E+03		-3.093779E+03		2.863769E+03
-3.331618E+03		-2.001139E+03		1.662523E+03
-2.830640E+03		-1.988614E+03		1.174069E+03
-5.195667E+03		-1.445141E+03		7.327019E+03
-2.603847E+03		-6.435751E+03		9.725809E+03
-3.952608E+03		-2.199260E+03		2.085392E+03
-7.665872E+03		-6.808162E+03		1.189754E+03
-4.011135E+03		-4.406017E+03		9.103363E+03
-5.047394E+03		-1.830797E+03		7.564402E+03
-2.948240E+03		-5.931606E+03		9.566057E+03
-4.731136E+03		-3.046111E+03		8.463458E+03
-3.396198E+03		-5.229796E+03		9.312206E+03
-9.470322E+03		9.447580E+03		7.089536E+02
-4.302005E+03		2.657111E+03		2.331106E+03
-5.009088E+03		7.361022E+03		-8.576403E+02
-5.009088E+03		6.569665E+03		-6.628329E+01
-8.291393E+03		8.053640E+03		9.239648E+02
-5.009088E+03		7.973743E+03		-1.470361E+03
-8.452345E+03		-6.647684E+02		-9.111966E+02
-5.906408E+03		4.700061E+03		1.892558E+03
-5.009088E+03		4.748066E+03		1.755315E+03
-7.771197E+03		5.844461E+02		1.019165E+03
-5.009088E+03		5.957775E+03		5.456068E+02
-5.009088E+03		5.353004E+03		1.150378E+03
-5.009088E+03		6.921620E+03		-4.182389E+02
-9.929270E+03		1.004002E+04		5.754611E+02
-4.859882E+03		3.437830E+03		2.108263E+03
-9.111002E+03		9.028869E+03		7.683447E+02
-8.796795E+03		8.702351E+03		7.806553E+02
-7.691755E+03		6.830140E+03		1.547826E+03
-7.355278E+03		6.207465E+03		1.834024E+03
-3.759849E+03		8.348897E+03		-3.094755E+03
-8.345421E+03		-4.184377E+02		-5.579424E+02
-3.692257E+03		1.951717E+03		2.426751E+03
-4.026480E+03		7.928893E+03		-2.408119E+03
-7.771197E+03		1.105573E+03		1.540292E+03
-7.997636E+03		7.514678E+03		1.169169E+03
-7.771197E+03		-9.573298E+01		3.389861E+02
-6.872699E+03		5.643739E+03		1.915172E+03
-3.067908E+03		1.284110E+03		2.470009E+03
-5.305789E+03		4.018125E+03		1.973876E+03
-6.208706E+03		5.016099E+03		1.878818E+03
-5.009088E+03		4.143449E+03		2.359932E+03
-2.865440E+03		1.009174E+03		2.542477E+03
-7.771197E+03		2.325458E+03		2.760177E+03
-7.771197E+03		1.565282E+03		2.000001E+03
-7.771197E+03		1.837405E+03		2.272124E+03
-4.152173E+03		3.923207E+02		4.446064E+03
-4.253043E+03		6.821885E+02		4.257066E+03
-6.975264E+03		4.381281E+03		5.611933E+03
-6.975264E+03		8.809368E+03		1.004002E+04
-6.829994E+03		9.383328E+01		7.422372E+03
-9.145565E+03		2.033129E+03		7.798648E+03
-6.975264E+03		6.159668E+03		7.390320E+03
-7.915101E+03		1.178941E+03		7.422372E+03
-6.975264E+03		5.227493E+03		6.458145E+03
-6.312965E+03		-4.231952E+02		7.422372E+03
-7.269520E+03		5.333599E+02		7.422372E+03
-6.975264E+03		7.971604E+03		9.202256E+03
-6.975264E+03		6.809685E+03		8.040337E+03
-6.975264E+03		8.299864E+03		9.530516E+03
-6.975264E+03		3.987220E+03		5.217872E+03
-4.736619E+03		9.767665E+02		4.446064E+03
-8.384980E+03		1.648819E+03		7.422372E+03
-6.975264E+03		7.457553E+03		8.688205E+03
-4.045292E+03		3.289411E+01		4.193518E+03
-9.944623E+03		2.533695E+03		8.097139E+03
-6.975264E+03		5.609760E+03		6.840412E+03
-3.960970E+03		2.011180E+02		4.446064E+03
-5.993209E+03		-7.429513E+02		7.422372E+03
-6.975264E+03		2.538810E+03		3.769462E+03
-1.004002E+04		2.607925E+03		8.118307E+03
-6.975264E+03		3.497620E+03		4.728272E+03
-4.424256E+03		6.644039E+02		4.446064E+03
-6.975264E+03		4.874915E+03		6.105567E+03
-4.772838E+03		1.012986E+03		4.446064E+03
-6.975264E+03		3.053625E+03		4.284277E+03
-1.000578E+03		-8.625579E+03		-7.292957E+03
-1.896800E+03		-9.112756E+03		-6.883913E+03
-1.628469E+02		-8.197933E+03		-7.703042E+03
9.608024E+02		-7.381549E+03		-8.010307E+03
5.050994E+03		-5.477872E+03		3.878160E+02
5.305084E+03		-5.477872E+03		1.337259E+02
2.151545E+03		-7.061921E+03		1.703216E+03
7.763927E+03		-5.477872E+03		-2.325117E+03
1.785377E+03		-1.004002E+04		-4.872628E+01
1.213636E+03		-6.830546E+03		-7.712138E+03
1.217204E+03		-6.088532E+03		-6.973691E+03
-1.546165E+03		-8.909903E+03		-7.031695E+03
1.270999E+03		-6.418532E+03		-7.357487E+03
1.442903E+01		-5.999739E+03		-5.682125E+03
3.380288E+03		-5.477872E+03		2.058523E+03
2.600749E+02		-7.944798E+03		-7.872829E+03
4.546287E+03		-5.477872E+03		8.925230E+02
1.051564E+03		-5.766932E+03		-6.486452E+03
3.931502E+03		-5.477872E+03		1.507309E+03
8.021119E+03		-5.477872E+03		-2.582308E+03
-5.876297E+02		-8.419021E+03		-7.499347E+03
6.931476E+03		-5.477872E+03		-1.492666E+03
8.577736E+03		-5.477872E+03		-3.138926E+03
1.448469E+03		-8.785013E+03		8.693721E+02
1.448469E+03		-8.138199E+03		1.516187E+03
6.205648E+03		-5.477872E+03		-7.668374E+02
1.448469E+03		-9.347831E+03		3.065541E+02
7.036862E+03		-3.454985E+03		-2.895665E+03
7.327734E+03		-5.477872E+03		-1.888924E+03
1.448469E+03		-7.715817E+03		1.938569E+03
9.961617E+03		-4.627937E+03		-4.647469E+03
1.004002E+04		-5.477872E+03		-4.601210E+03
5.541156E+02		-5.717495E+03		-5.939567E+03
9.214286E+03		-4.419606E+03		-4.108469E+03
9.440335E+03		-5.477872E+03		-4.001525E+03
1.004002E+04		-4.653179E+03		-4.700630E+03
8.573016E+03		-4.117410E+03		-3.769395E+03
7.866770E+03		-3.741859E+03		-3.438700E+03
1.982200E+03		-6.680326E+03		2.254156E+03
5.840297E+03		-5.477872E+03		-4.014864E+02
9.026442E+03		-5.477872E+03		-3.587632E+03
7.495066E+03		-3.625879E+03		-3.182975E+03
6.570072E+03		-5.477872E+03		-1.131262E+03
7.168934E+03		-7.119018E+03		8.255832E+03
7.168934E+03		-7.541580E+03		7.833271E+03
1.807439E+03		-5.987539E+03		3.121705E+03
7.096020E+02		-3.753669E+03		3.730278E+03
2.226662E+03		-6.873374E+03		3.559205E+03
7.168934E+03		-9.153688E+03		6.221162E+03
7.168934E+03		-9.626905E+03		5.747946E+03
6.455846E+03		-5.335577E+03		9.326185E+03
1.427559E+03		-7.274880E+03		2.358596E+03
7.168934E+03		-6.654167E+03		8.720684E+03
1.813327E+03		-5.620411E+03		3.482945E+03
2.557395E+03		-5.765587E+03		3.894404E+03
-1.133377E+03		-8.220432E+03		1.004002E+04
6.066243E+03		-4.886659E+03		9.385500E+03
2.208090E+03		-5.416282E+03		3.894404E+03
-1.640251E+03		-7.592990E+03		9.919452E+03
1.738206E+03		-6.865780E+03		3.078342E+03
7.168934E+03		-8.770344E+03		6.604506E+03
5.821343E+03		-4.537839E+03		9.489421E+03
5.086047E+03		-8.294239E+03		3.894404E+03
3.554188E+02		-3.385344E+03		3.716137E+03
1.866490E+03		-5.093065E+03		3.957127E+03
1.858659E+03		-6.338272E+03		2.719751E+03
6.789288E+03		-1.004002E+04		4.955184E+03
4.511572E+03		-7.719765E+03		3.894404E+03
7.168934E+03		-6.190430E+03		9.184421E+03
7.168934E+03		-7.906715E+03		7.468136E+03
-2.095227E+03		-7.039144E+03		9.820582E+03
2.962065E+03		-6.170257E+03		3.894404E+03
1.907043E+03		-5.115235E+03		3.894404E+03
4.012292E+03		-7.220484E+03		3.894404E+03
5.665183E+03		-8.873376E+03		3.894404E+03
6.302325E+03		-9.510517E+03		3.894404E+03
6.207881E+03		-1.004002E+04		4.518351E+03
5.415594E+03		-3.877683E+03		9.743827E+03
1.357984E+03		-4.461303E+03		3.789530E+03
6.962501E+03		-1.002438E+04		5.144038E+03
7.168934E+03		-8.434105E+03		6.940746E+03
3.559092E+03		-6.767285E+03		3.894404E+03
6.571636E+03		-3.202805E+03		-2.682619E+03
6.869094E+03		3.532807E+03		4.087813E+01
7.185455E+03		3.373596E+03		5.164497E+02
3.948643E+03		2.793415E+02		-3.541773E+03
1.166581E+03		3.483739E+02		-2.477202E+03
-1.398499E+03		6.019553E+03		-3.934842E+03
2.425464E+03		-1.200862E+03		3.309171E+02
3.710448E+03		-6.665358E+02		1.081574E+03
-1.890849E+03		6.511902E+03		-3.934842E+03
4.392865E+03		1.588111E+01		1.081574E+03
1.436480E+03		-6.918504E+01		-1.789744E+03
3.839698E+02		4.716913E+03		-4.414671E+03
5.759157E+03		3.469045E+02		-5.419851E+03
2.140275E+03		-1.042884E+03		-1.122506E+02
4.851269E+03		-1.238817E+03		-2.926241E+03
1.701591E+03		-4.608911E+02		-1.132927E+03
-1.230275E+03		8.664143E+03		-6.747656E+03
4.221853E+03		-2.730186E+02		-3.262623E+03
4.513112E+03		-7.224709E+02		-3.104429E+03
2.114890E+03		8.401056E+03		-9.829734E+03
5.681961E+02		8.763858E+03		-8.645842E+03
-8.029200E+02		5.423974E+03		-3.934842E+03
-1.914740E+03		7.889001E+03		-5.288050E+03
1.927631E+03		-7.771736E+02		-5.906051E+02
-1.614071E+03		8.372374E+03		-6.072092E+03
3.920988E+03		9.001891E+02		-4.134966E+03
1.403849E+03		8.588420E+03		-9.306057E+03
2.705034E+03		8.021198E+03		-1.004002E+04
6.174916E+03		-2.806085E+03		-2.682619E+03
4.355534E+03		1.201222E+03		-4.870545E+03
5.126728E+03		-1.757897E+03		-2.682619E+03
-1.405710E+02		8.858561E+03		-8.031778E+03
7.455540E+02		8.696295E+03		-8.755638E+03
4.940894E+03		1.076714E+03		-5.331396E+03
-2.282737E+03		-2.094109E+03		5.206726E+02
-2.053360E+02		4.826390E+03		-3.934842E+03
5.506163E+03		7.114960E+02		-5.531448E+03
-1.873985E+03		-2.272178E+03		-6.614911E+01
6.642822E+03		2.265838E+03		1.081574E+03
7.024820E+03		2.772263E+03		9.571479E+02
4.730733E+03		3.537490E+02		1.081574E+03
6.130599E+03		1.753615E+03		1.081574E+03
5.779390E+03		1.402406E+03		1.081574E+03
3.206400E+03		-1.170584E+03		1.081574E+03
5.237894E+03		8.609106E+02		1.081574E+03
-1.940641E+03		7.236691E+03		-4.609839E+03
-8.092721E+02		8.846615E+03		-7.351132E+03
5.570966E+03		-2.202136E+03		-2.682619E+03
7.536533E+03		2.911560E+03		3.296112E+03
6.388878E+03		2.766316E+03		7.294120E+03
4.197958E+03		2.468719E+03		6.191846E+03
7.536533E+03		4.414773E+03		4.799325E+03
8.043170E+03		3.351712E+03		6.225225E+03
2.944297E+03		3.067793E+02		8.279165E+03
2.070046E+01		-2.967840E+03		3.633351E+03
2.878136E+03		1.254607E+03		6.297557E+03
2.430704E+03		-6.866144E+02		9.950006E+03
1.933654E+03		-3.870429E+02		9.752528E+03
7.101342E+03		2.986986E+03		6.802325E+03
3.931319E+03		1.244284E+03		8.229647E+03
5.775768E+03		2.397024E+03		7.537939E+03
2.457731E+03		6.736261E+01		5.530717E+03
5.136190E+03		3.426828E+03		6.211723E+03
2.809272E+03		-9.751683E+02		1.004002E+04
8.594902E+03		3.800015E+03		6.121796E+03
4.664419E+03		2.928025E+03		6.184691E+03
7.536533E+03		3.403478E+03		3.788030E+03
1.679926E+03		-1.715124E+02		9.714330E+03
2.457731E+03		-6.199466E+02		4.843407E+03
3.510397E+03		1.824225E+03		6.234913E+03
-1.499671E+03		-5.960902E+02		2.781973E+03
5.245691E+03		2.008643E+03		7.679634E+03
4.380143E+03		-2.546040E+03		1.004002E+04
2.457731E+03		-1.898156E+03		3.565198E+03
-1.076484E+03		-1.167271E+03		2.929967E+03
4.853451E+03		1.779154E+03		7.842385E+03
-1.763721E+02		1.316933E+03		9.346477E+03
6.721915E+03		4.420722E+03		5.619893E+03
-9.518743E+02		-1.170387E+03		6.083655E+03
6.154623E+03		4.333720E+03		6.100182E+03
9.329131E+03		4.218705E+03		5.806257E+03
-1.312210E+03		6.795712E+02		7.573278E+03
-6.412388E+02		-1.809934E+03		3.137384E+03
3.278250E+03		7.909700E+02		8.429402E+03
3.032308E+03		5.571250E+02		8.441499E+03
-2.402313E+03		4.673500E+02		2.621174E+03
4.431515E+03		1.541947E+03		8.027114E+03
-1.312210E+03		1.920652E+02		7.085772E+03
5.501290E+03		3.848265E+03		6.268061E+03
-1.312210E+03		1.204028E+03		8.097735E+03
2.521854E+03		9.445523E+02		6.343784E+03
2.244453E+03		5.160619E+02		6.192693E+03
-1.312210E+03		-5.000735E+02		6.393633E+03
-4.516424E+02		-2.191662E+03		3.329515E+03
2.457731E+03		-1.417359E+03		4.045995E+03
7.536533E+03		3.968595E+03		4.353147E+03
-1.949698E+03		-2.233831E+01		2.658248E+03
-7.466130E+02		1.313109E+03		8.772413E+03
4.900407E+03		-3.071202E+03		1.003512E+04
5.844877E+03		4.198495E+03		6.274704E+03
1.066281E+03		5.324921E+02		9.804689E+03
2.457731E+03		-1.075077E+03		4.388277E+03
5.389154E+02		1.020478E+03		9.765310E+03
1.004002E+04		4.446079E+03		5.322741E+03
7.766697E+03		3.199962E+03		6.349947E+03
LINES 286 858
2		0		2
2		0		4
2		1		4
2		1		6
2		2		15
2		3		20
2		3		18
2		5		113
2		5		8
2		6		26
2		7		17
2		7		15
2		8		11
2		9		13
2		9		11
2		10		16
2		10		14
2		12		20
2		12		19
2		13		17
2		14		53
2		16		18
2		21		32
2		21		40
2		22		31
2		22		28
2		23		27
2		23		35
2		24		43
2		24		45
2		25		26
2		25		41
2		27		28
2		29		41
2		29		31
2		30		45
2		30		42
2		32		35
2		33		38
2		33		104
2		34		42
2		34		46
2		36		37
2		36		40
2		37		228
2		38		43
2		39		182
2		39		44
2		44		46
2		47		62
2		47		60
2		48		68
2		48		61
2		49		52
2		49		59
2		50		59
2		50		57
2		51		71
2		51		63
2		52		69
2		53		67
2		54		76
2		54		75
2		55		58
2		55		77
2		56		72
2		56		70
2		57		58
2		61		75
2		62		63
2		64		71
2		64		65
2		65		73
2		66		69
2		67		72
2		68		74
2		70		80
2		73		76
2		74		78
2		78		279
2		79		105
2		79		81
2		80		81
2		82		100
2		82		108
2		83		97
2		83		103
2		84		109
2		84		96
2		85		95
2		86		92
2		86		91
2		87		101
2		87		98
2		88		102
2		88		94
2		89		98
2		89		92
2		90		109
2		90		102
2		91		104
2		93		99
2		93		95
2		94		99
2		96		107
2		97		110
2		100		103
2		101		106
2		105		111
2		107		111
2		108		110
2		112		123
2		112		132
2		113		123
2		114		132
2		114		127
2		115		127
2		115		121
2		116		128
2		116		117
2		117		151
2		118		150
2		118		126
2		119		140
2		119		131
2		120		138
2		121		124
2		122		129
2		122		124
2		125		144
2		126		130
2		128		130
2		129		144
2		131		134
2		133		140
2		133		154
2		134		152
2		135		136
2		135		138
2		136		141
2		137		154
2		137		151
2		139		194
2		139		153
2		141		163
2		142		145
2		142		147
2		143		146
2		145		148
2		146		152
2		148		149
2		149		153
2		150		177
2		155		164
2		155		156
2		156		181
2		157		177
2		157		165
2		158		175
2		158		190
2		159		171
2		160		172
2		160		161
2		161		191
2		162		180
2		162		168
2		163		171
2		164		180
2		165		184
2		166		183
2		166		169
2		167		170
2		168		173
2		169		184
2		170		182
2		172		192
2		173		189
2		174		186
2		174		179
2		175		248
2		176		184
2		178		191
2		179		185
2		181		192
2		183		193
2		184		190
2		185		193
2		186		187
2		187		188
2		189		292
2		194		222
2		195		196
2		196		233
2		197		219
2		197		211
2		198		204
2		199		215
2		199		202
2		200		237
2		200		207
2		201		203
2		201		237
2		202		239
2		203		234
2		204		209
2		205		229
2		206		230
2		207		217
2		208		224
2		208		212
2		209		217
2		210		240
2		210		218
2		211		212
2		213		221
2		213		220
2		214		225
2		214		226
2		215		229
2		216		239
2		216		218
2		219		223
2		220		226
2		222		241
2		223		227
2		224		241
2		225		240
2		227		230
2		228		231
2		232		235
2		232		233
2		234		238
2		235		236
2		236		238
2		242		260
2		243		254
2		243		252
2		244		259
2		244		263
2		245		271
2		245		289
2		246		298
2		246		258
2		247		278
2		248		287
2		249		263
2		249		284
2		250		251
2		250		257
2		251		261
2		252		298
2		253		277
2		253		280
2		254		265
2		255		262
2		255		285
2		256		259
2		256		282
2		258		274
2		260		289
2		261		294
2		262		295
2		264		268
2		264		290
2		265		269
2		266		292
2		267		288
2		268		276
2		269		280
2		270		291
2		270		296
2		271		273
2		272		286
2		273		293
2		274		297
2		275		283
2		275		281
2		276		287
2		277		278
2		279		290
2		281		286
2		282		293
2		283		291
2		284		285
2		288		295
2		294		296
POINT_DATA 299
scalars NodeType integer
LOOKUP_TABLE default
0
0
0
0
0
0
0
0
0
0
0
0
0
0
0
0
0
0
0
8
0
0
0
0
0
0
0
0
0
0
0
0
0
0
0
0
0
0
0
0
0
0
0
0
0
0
0
0
0
0
0
0
0
0
0
0
0
0
0
0
8
0
0
0
0
0
7
0
0
0
0
0
0
0
0
0
0
7
0
0
0
0
0
0
0
8
0
0
0
0
0
0
0
0
0
0
0
0
0
0
0
0
0
0
0
0
8
0
0
0
0
0
0
0
0
0
0
0
0
0
8
0
0
0
0
7
0
0
0
0
0
0
0
0
0
0
0
0
0
0
0
0
0
8
0
0
0
8
0
0
0
0
0
0
0
0
0
0
0
7
0
0
0
0
0
0
0
8
0
0
0
0
0
0
0
0
7
0
8
0
0
0
0
0
0
0
0
0
8
0
0
0
0
0
0
7
0
0
7
0
0
0
0
0
0
7
7
0
0
0
0
0
0
0
0
0
0
0
0
0
0
8
0
0
0
0
0
0
0
0
0
7
0
0
0
0
0
0
0
0
0
0
7
0
0
0
0
7
0
0
0
0
0
0
0
0
0
8
0
0
0
0
0
0
0
0
8
7
0
0
0
0
7
0
0
0
0
0
0
0
0
0
0
0
0
0
0
0
0
0
0
0
0
0
0
0
0
8
0
CELL_DATA 286
SCALARS SlipSystem integer
LOOKUP_TABLE default
8
8
8
8
8
12
12
8
2
8
8
8
2
8
2
12
12
12
12
8
12
12
8
8
8
8
8
8
1
1
8
8
8
8
8
1
1
8
1
1
1
1
8
8
8
1
1
1
1
1
1
1
1
6
6
6
6
1
1
3
12
1
1
6
6
9
9
6
1
1
1
1
1
3
12
1
9
1
1
1
12
9
9
10
1
1
1
9
9
9
10
10
1
1
9
9
10
10
9
9
10
9
9
9
9
1
10
1
9
9
1
8
8
8
8
8
8
8
2
2
2
8
8
2
2
12
8
8
8
8
2
2
8
2
2
2
2
9
9
9
2
2
1
1
12
1
1
2
1
2
1
1
8
9
9
9
8
8
1
1
12
9
9
12
12
12
12
9
8
10
10
1
12
10
1
9
12
10
10
1
8
12
10
9
10
1
10
10
1
12
10
4
4
1
1
4
10
10
4
4
7
7
1
7
4
1
1
4
1
1
4
1
1
1
1
1
1
1
10
1
1
1
1
10
1
10
1
1
8
7
4
7
7
7
12
8
8
9
9
9
12
8
8
8
1
9
9
12
12
12
8
8
8
8
12
9
9
9
8
12
12
12
1
1
8
12
12
1
8
12
12
9
12
9
8
9
9
1
8
1
9
9
12
9
12
12
